<?xml version="1.0" encoding="utf-8"?>
<!-- generated on 2022-03-01 14:53:10 by Eclipse SUMO GUI Version 1.11.0
<configuration xmlns:xsi="http://www.w3.org/2001/XMLSchema-instance" xsi:noNamespaceSchemaLocation="http://sumo.dlr.de/xsd/sumoConfiguration.xsd">

    <input>
        <net-file value="simulation_data/osm.net.xml"/>
        <route-files value="simulation_data/osm_pt.rou.xml,simulation_data/osm.passenger.trips.xml"/>
        <additional-files value="simulation_data/osm.poly.xml,simulation_data/osm_stops.add.xml,simulation_data/detectors.xml"/>
    </input>

    <output>
        <emission-output value="output/emissions.xml"/>
        <full-output value="output/full.xml"/>
        <queue-output value="output/queue.xml"/>
        <summary-output value="output/summary.xml"/>
        <tripinfo-output value="output/trip_info.xml"/>
        <vehroute-output value="output/vehicle-routes.xml"/>
        <statistic-output value="output/statistics.xml"/>
    </output>

    <processing>
        <ignore-route-errors value="true"/>
        <tls.actuated.show-detectors value="true"/>
    </processing>

    <routing>
        <device.rerouting.adaptation-steps value="18"/>
        <device.rerouting.adaptation-interval value="10"/>
    </routing>

    <report>
        <verbose value="true"/>
        <duration-log.statistics value="true"/>
        <no-step-log value="true"/>
    </report>

    <traci_server>
        <remote-port value="62073"/>
    </traci_server>

    <gui_only>
        <gui-settings-file value="simulation_data/visualisation.xml"/>
    </gui_only>

</configuration>
--><queue-export xmlns:xsi="http://www.w3.org/2001/XMLSchema-instance" xsi:noNamespaceSchemaLocation="http://sumo.dlr.de/xsd/queue_file.xsd">
<data count="0" id="0" timestep="0.00">
<lanes/>
</data>
<data count="0" id="0" timestep="1.00">
<lanes/>
</data>
<data count="0" id="0" timestep="2.00">
<lanes/>
</data>
<data count="0" id="0" timestep="3.00">
<lanes/>
</data>
<data count="0" id="0" timestep="4.00">
<lanes/>
</data>
<data count="0" id="0" timestep="5.00">
<lanes/>
</data>
<data count="0" id="0" timestep="6.00">
<lanes/>
</data>
<data count="0" id="0" timestep="7.00">
<lanes/>
</data>
<data count="0" id="0" timestep="8.00">
<lanes/>
</data>
<data count="0" id="0" timestep="9.00">
<lanes/>
</data>
<data count="0" id="0" timestep="10.00">
<lanes/>
</data>
<data count="0" id="0" timestep="11.00">
<lanes/>
</data>
<data count="1" id="0" timestep="12.00">
<lanes>
<lane id="24808934_0" queueing_length="0.00" queueing_length_experimental="293.23" queueing_time="0.00"/>
</lanes>
</data>
<data count="1" id="0" timestep="13.00">
<lanes>
<lane id="24808934_0" queueing_length="0.00" queueing_length_experimental="292.98" queueing_time="0.00"/>
</lanes>
</data>
<data count="2" id="0" timestep="14.00">
<lanes>
<lane id="-697574936#1_0" queueing_length="6.04" queueing_length_experimental="6.04" queueing_time="1.00"/>
<lane id="24808934_0" queueing_length="0.00" queueing_length_experimental="292.48" queueing_time="0.00"/>
</lanes>
</data>
<data count="3" id="0" timestep="15.00">
<lanes>
<lane id="-11627689_1" queueing_length="6.08" queueing_length_experimental="6.08" queueing_time="1.00"/>
<lane id="-697574936#1_0" queueing_length="6.01" queueing_length_experimental="6.01" queueing_time="2.00"/>
<lane id="24808934_0" queueing_length="0.00" queueing_length_experimental="291.73" queueing_time="0.00"/>
</lanes>
</data>
<data count="3" id="0" timestep="16.00">
<lanes>
<lane id="-11627689_1" queueing_length="6.02" queueing_length_experimental="6.02" queueing_time="2.00"/>
<lane id="-697574936#1_0" queueing_length="6.01" queueing_length_experimental="6.01" queueing_time="3.00"/>
<lane id="24808934_0" queueing_length="0.00" queueing_length_experimental="290.73" queueing_time="0.00"/>
</lanes>
</data>
<data count="3" id="0" timestep="17.00">
<lanes>
<lane id="-11627689_1" queueing_length="6.00" queueing_length_experimental="6.00" queueing_time="3.00"/>
<lane id="-697574936#1_0" queueing_length="6.00" queueing_length_experimental="6.00" queueing_time="4.00"/>
<lane id="24808934_0" queueing_length="0.00" queueing_length_experimental="289.48" queueing_time="0.00"/>
</lanes>
</data>
<data count="2" id="0" timestep="18.00">
<lanes>
<lane id="-11627689_1" queueing_length="6.00" queueing_length_experimental="6.00" queueing_time="4.00"/>
<lane id="-697574936#1_0" queueing_length="6.00" queueing_length_experimental="6.00" queueing_time="5.00"/>
</lanes>
</data>
<data count="2" id="0" timestep="19.00">
<lanes>
<lane id="-11627689_1" queueing_length="6.00" queueing_length_experimental="6.00" queueing_time="5.00"/>
<lane id="-697574936#1_0" queueing_length="6.00" queueing_length_experimental="6.00" queueing_time="6.00"/>
</lanes>
</data>
<data count="2" id="0" timestep="20.00">
<lanes>
<lane id="-11627689_1" queueing_length="6.00" queueing_length_experimental="6.00" queueing_time="6.00"/>
<lane id="-697574936#1_0" queueing_length="6.00" queueing_length_experimental="6.00" queueing_time="7.00"/>
</lanes>
</data>
<data count="2" id="0" timestep="21.00">
<lanes>
<lane id="-11627689_1" queueing_length="6.00" queueing_length_experimental="6.00" queueing_time="7.00"/>
<lane id="-697574936#1_0" queueing_length="6.00" queueing_length_experimental="6.00" queueing_time="8.00"/>
</lanes>
</data>
<data count="2" id="0" timestep="22.00">
<lanes>
<lane id="-11627689_1" queueing_length="6.00" queueing_length_experimental="6.00" queueing_time="8.00"/>
<lane id="-697574936#1_0" queueing_length="6.00" queueing_length_experimental="6.00" queueing_time="9.00"/>
</lanes>
</data>
<data count="2" id="0" timestep="23.00">
<lanes>
<lane id="-11627689_1" queueing_length="6.00" queueing_length_experimental="6.00" queueing_time="9.00"/>
<lane id="-697574936#1_0" queueing_length="6.00" queueing_length_experimental="6.00" queueing_time="10.00"/>
</lanes>
</data>
<data count="1" id="0" timestep="24.00">
<lanes>
<lane id="-11627689_1" queueing_length="6.00" queueing_length_experimental="6.00" queueing_time="10.00"/>
</lanes>
</data>
<data count="1" id="0" timestep="25.00">
<lanes>
<lane id="-11627689_1" queueing_length="6.00" queueing_length_experimental="6.00" queueing_time="11.00"/>
</lanes>
</data>
<data count="2" id="0" timestep="26.00">
<lanes>
<lane id="-11627689_1" queueing_length="6.00" queueing_length_experimental="6.00" queueing_time="12.00"/>
<lane id="24808934_0" queueing_length="0.00" queueing_length_experimental="271.69" queueing_time="0.00"/>
</lanes>
</data>
<data count="3" id="0" timestep="27.00">
<lanes>
<lane id="-11627689_1" queueing_length="6.00" queueing_length_experimental="6.00" queueing_time="13.00"/>
<lane id="-29084716#2_1" queueing_length="0.00" queueing_length_experimental="6.09" queueing_time="0.00"/>
<lane id="24808934_0" queueing_length="0.00" queueing_length_experimental="271.69" queueing_time="0.00"/>
</lanes>
</data>
<data count="3" id="0" timestep="28.00">
<lanes>
<lane id="-11627689_1" queueing_length="6.00" queueing_length_experimental="6.00" queueing_time="14.00"/>
<lane id="-29084716#2_1" queueing_length="6.01" queueing_length_experimental="6.01" queueing_time="1.00"/>
<lane id="24808934_0" queueing_length="0.00" queueing_length_experimental="271.69" queueing_time="0.00"/>
</lanes>
</data>
<data count="4" id="0" timestep="29.00">
<lanes>
<lane id="-11627689_1" queueing_length="6.00" queueing_length_experimental="6.00" queueing_time="15.00"/>
<lane id="-29084716#2_1" queueing_length="6.00" queueing_length_experimental="6.00" queueing_time="2.00"/>
<lane id="-317130966_0" queueing_length="0.00" queueing_length_experimental="5.00" queueing_time="0.00"/>
<lane id="24808934_0" queueing_length="0.00" queueing_length_experimental="271.69" queueing_time="0.00"/>
</lanes>
</data>
<data count="4" id="0" timestep="30.00">
<lanes>
<lane id="-11627689_1" queueing_length="6.00" queueing_length_experimental="6.00" queueing_time="16.00"/>
<lane id="-29084716#2_1" queueing_length="6.00" queueing_length_experimental="6.00" queueing_time="3.00"/>
<lane id="24218438#1_0" queueing_length="0.00" queueing_length_experimental="5.00" queueing_time="0.00"/>
<lane id="24808934_0" queueing_length="0.00" queueing_length_experimental="271.69" queueing_time="0.00"/>
</lanes>
</data>
<data count="4" id="0" timestep="31.00">
<lanes>
<lane id="-11627689_1" queueing_length="6.00" queueing_length_experimental="6.00" queueing_time="17.00"/>
<lane id="-23918286#1_2" queueing_length="0.00" queueing_length_experimental="18.18" queueing_time="0.00"/>
<lane id="-29084716#2_1" queueing_length="6.00" queueing_length_experimental="6.00" queueing_time="4.00"/>
<lane id="24808934_0" queueing_length="0.00" queueing_length_experimental="271.69" queueing_time="0.00"/>
</lanes>
</data>
<data count="4" id="0" timestep="32.00">
<lanes>
<lane id="-11627689_1" queueing_length="6.00" queueing_length_experimental="6.00" queueing_time="18.00"/>
<lane id="-23918286#1_0" queueing_length="0.00" queueing_length_experimental="6.03" queueing_time="0.00"/>
<lane id="-29084716#2_1" queueing_length="6.00" queueing_length_experimental="6.00" queueing_time="5.00"/>
<lane id="24808934_0" queueing_length="0.00" queueing_length_experimental="271.69" queueing_time="0.00"/>
</lanes>
</data>
<data count="4" id="0" timestep="33.00">
<lanes>
<lane id="-11627689_1" queueing_length="6.00" queueing_length_experimental="6.00" queueing_time="19.00"/>
<lane id="-23918286#1_0" queueing_length="6.01" queueing_length_experimental="6.01" queueing_time="1.00"/>
<lane id="-29084716#2_1" queueing_length="6.00" queueing_length_experimental="6.00" queueing_time="6.00"/>
<lane id="24808934_0" queueing_length="0.00" queueing_length_experimental="271.69" queueing_time="0.00"/>
</lanes>
</data>
<data count="5" id="0" timestep="34.00">
<lanes>
<lane id="-11627689_1" queueing_length="6.00" queueing_length_experimental="6.00" queueing_time="20.00"/>
<lane id="-23918286#1_0" queueing_length="6.00" queueing_length_experimental="6.00" queueing_time="2.00"/>
<lane id="-23918286#1_1" queueing_length="0.00" queueing_length_experimental="6.07" queueing_time="0.00"/>
<lane id="-29084716#2_1" queueing_length="6.00" queueing_length_experimental="6.00" queueing_time="7.00"/>
<lane id="24808934_0" queueing_length="0.00" queueing_length_experimental="271.69" queueing_time="0.00"/>
</lanes>
</data>
<data count="6" id="0" timestep="35.00">
<lanes>
<lane id="-11627689_1" queueing_length="6.00" queueing_length_experimental="6.00" queueing_time="21.00"/>
<lane id="-23918286#1_0" queueing_length="6.00" queueing_length_experimental="6.00" queueing_time="3.00"/>
<lane id="-23918286#1_1" queueing_length="6.02" queueing_length_experimental="6.02" queueing_time="1.00"/>
<lane id="-23918286#1_2" queueing_length="0.00" queueing_length_experimental="6.99" queueing_time="0.00"/>
<lane id="-29084716#2_1" queueing_length="6.00" queueing_length_experimental="6.00" queueing_time="8.00"/>
<lane id="24808934_0" queueing_length="0.00" queueing_length_experimental="271.69" queueing_time="0.00"/>
</lanes>
</data>
<data count="6" id="0" timestep="36.00">
<lanes>
<lane id="-11627689_1" queueing_length="6.00" queueing_length_experimental="6.00" queueing_time="22.00"/>
<lane id="-23918286#1_0" queueing_length="6.00" queueing_length_experimental="6.00" queueing_time="4.00"/>
<lane id="-23918286#1_1" queueing_length="6.00" queueing_length_experimental="6.00" queueing_time="2.00"/>
<lane id="-23918286#1_2" queueing_length="0.00" queueing_length_experimental="6.21" queueing_time="0.00"/>
<lane id="-29084716#2_1" queueing_length="6.00" queueing_length_experimental="6.00" queueing_time="9.00"/>
<lane id="24808934_0" queueing_length="0.00" queueing_length_experimental="271.69" queueing_time="0.00"/>
</lanes>
</data>
<data count="7" id="0" timestep="37.00">
<lanes>
<lane id="-11627689_1" queueing_length="6.00" queueing_length_experimental="6.00" queueing_time="23.00"/>
<lane id="-23918286#1_0" queueing_length="6.00" queueing_length_experimental="6.00" queueing_time="5.00"/>
<lane id="-23918286#1_1" queueing_length="6.00" queueing_length_experimental="6.00" queueing_time="3.00"/>
<lane id="-23918286#1_2" queueing_length="0.00" queueing_length_experimental="6.04" queueing_time="0.00"/>
<lane id="-29084716#2_1" queueing_length="6.00" queueing_length_experimental="6.00" queueing_time="10.00"/>
<lane id="24808934_0" queueing_length="0.00" queueing_length_experimental="271.69" queueing_time="0.00"/>
<lane id="915205870#0_1" queueing_length="0.00" queueing_length_experimental="5.48" queueing_time="0.00"/>
</lanes>
</data>
<data count="7" id="0" timestep="38.00">
<lanes>
<lane id="-11627689_1" queueing_length="6.00" queueing_length_experimental="6.00" queueing_time="24.00"/>
<lane id="-23918286#1_0" queueing_length="6.00" queueing_length_experimental="6.00" queueing_time="6.00"/>
<lane id="-23918286#1_1" queueing_length="6.00" queueing_length_experimental="6.00" queueing_time="4.00"/>
<lane id="-23918286#1_2" queueing_length="6.02" queueing_length_experimental="6.02" queueing_time="1.00"/>
<lane id="-29084716#2_1" queueing_length="6.00" queueing_length_experimental="6.00" queueing_time="11.00"/>
<lane id="24808934_0" queueing_length="0.00" queueing_length_experimental="271.69" queueing_time="0.00"/>
<lane id="915205870#0_1" queueing_length="0.00" queueing_length_experimental="5.24" queueing_time="0.00"/>
</lanes>
</data>
<data count="7" id="0" timestep="39.00">
<lanes>
<lane id="-11627689_1" queueing_length="6.00" queueing_length_experimental="6.00" queueing_time="25.00"/>
<lane id="-23918286#1_0" queueing_length="6.00" queueing_length_experimental="6.00" queueing_time="7.00"/>
<lane id="-23918286#1_1" queueing_length="6.00" queueing_length_experimental="6.00" queueing_time="5.00"/>
<lane id="-23918286#1_2" queueing_length="6.00" queueing_length_experimental="6.00" queueing_time="2.00"/>
<lane id="-29084716#2_1" queueing_length="6.00" queueing_length_experimental="6.00" queueing_time="12.00"/>
<lane id="24808934_0" queueing_length="0.00" queueing_length_experimental="271.69" queueing_time="0.00"/>
<lane id="915205870#0_1" queueing_length="0.00" queueing_length_experimental="5.12" queueing_time="0.00"/>
</lanes>
</data>
<data count="6" id="0" timestep="40.00">
<lanes>
<lane id="-11627689_1" queueing_length="6.00" queueing_length_experimental="13.57" queueing_time="26.00"/>
<lane id="-23918286#1_0" queueing_length="6.00" queueing_length_experimental="6.00" queueing_time="8.00"/>
<lane id="-23918286#1_1" queueing_length="6.00" queueing_length_experimental="6.00" queueing_time="6.00"/>
<lane id="-23918286#1_2" queueing_length="6.00" queueing_length_experimental="6.00" queueing_time="3.00"/>
<lane id="-29084716#2_1" queueing_length="6.00" queueing_length_experimental="6.00" queueing_time="13.00"/>
<lane id="24808934_0" queueing_length="0.00" queueing_length_experimental="271.69" queueing_time="0.00"/>
</lanes>
</data>
<data count="6" id="0" timestep="41.00">
<lanes>
<lane id="-11627689_1" queueing_length="13.51" queueing_length_experimental="13.51" queueing_time="27.00"/>
<lane id="-23918286#1_0" queueing_length="6.00" queueing_length_experimental="6.00" queueing_time="9.00"/>
<lane id="-23918286#1_1" queueing_length="6.00" queueing_length_experimental="6.00" queueing_time="7.00"/>
<lane id="-23918286#1_2" queueing_length="6.00" queueing_length_experimental="6.00" queueing_time="4.00"/>
<lane id="-29084716#2_1" queueing_length="6.00" queueing_length_experimental="6.00" queueing_time="14.00"/>
<lane id="24808934_0" queueing_length="0.00" queueing_length_experimental="271.69" queueing_time="0.00"/>
</lanes>
</data>
<data count="6" id="0" timestep="42.00">
<lanes>
<lane id="-11627689_1" queueing_length="13.50" queueing_length_experimental="13.50" queueing_time="28.00"/>
<lane id="-23918286#1_0" queueing_length="6.00" queueing_length_experimental="6.00" queueing_time="10.00"/>
<lane id="-23918286#1_1" queueing_length="6.00" queueing_length_experimental="6.00" queueing_time="8.00"/>
<lane id="-23918286#1_2" queueing_length="6.00" queueing_length_experimental="6.00" queueing_time="5.00"/>
<lane id="-29084716#2_1" queueing_length="6.00" queueing_length_experimental="6.00" queueing_time="15.00"/>
<lane id="24808934_0" queueing_length="0.00" queueing_length_experimental="271.69" queueing_time="0.00"/>
</lanes>
</data>
<data count="6" id="0" timestep="43.00">
<lanes>
<lane id="-11627689_1" queueing_length="13.50" queueing_length_experimental="13.50" queueing_time="29.00"/>
<lane id="-23918286#1_0" queueing_length="6.00" queueing_length_experimental="6.00" queueing_time="11.00"/>
<lane id="-23918286#1_1" queueing_length="6.00" queueing_length_experimental="6.00" queueing_time="9.00"/>
<lane id="-23918286#1_2" queueing_length="6.00" queueing_length_experimental="6.00" queueing_time="6.00"/>
<lane id="-29084716#2_1" queueing_length="6.00" queueing_length_experimental="6.00" queueing_time="16.00"/>
<lane id="24808934_0" queueing_length="0.00" queueing_length_experimental="271.69" queueing_time="0.00"/>
</lanes>
</data>
<data count="7" id="0" timestep="44.00">
<lanes>
<lane id="-11627689_1" queueing_length="13.50" queueing_length_experimental="13.50" queueing_time="30.00"/>
<lane id="-11627689_2" queueing_length="0.00" queueing_length_experimental="6.14" queueing_time="0.00"/>
<lane id="-23918286#1_0" queueing_length="6.00" queueing_length_experimental="6.00" queueing_time="12.00"/>
<lane id="-23918286#1_1" queueing_length="6.00" queueing_length_experimental="6.00" queueing_time="10.00"/>
<lane id="-23918286#1_2" queueing_length="6.00" queueing_length_experimental="6.00" queueing_time="7.00"/>
<lane id="-29084716#2_1" queueing_length="6.00" queueing_length_experimental="6.00" queueing_time="17.00"/>
<lane id="24808934_0" queueing_length="0.00" queueing_length_experimental="271.69" queueing_time="0.00"/>
</lanes>
</data>
<data count="7" id="0" timestep="45.00">
<lanes>
<lane id="-11627689_1" queueing_length="13.50" queueing_length_experimental="13.50" queueing_time="31.00"/>
<lane id="-11627689_2" queueing_length="6.06" queueing_length_experimental="6.06" queueing_time="1.00"/>
<lane id="-23918286#1_0" queueing_length="6.00" queueing_length_experimental="6.00" queueing_time="13.00"/>
<lane id="-23918286#1_1" queueing_length="6.00" queueing_length_experimental="6.00" queueing_time="11.00"/>
<lane id="-23918286#1_2" queueing_length="6.00" queueing_length_experimental="6.00" queueing_time="8.00"/>
<lane id="-29084716#2_1" queueing_length="6.00" queueing_length_experimental="6.00" queueing_time="18.00"/>
<lane id="24808934_0" queueing_length="0.00" queueing_length_experimental="271.69" queueing_time="0.00"/>
</lanes>
</data>
<data count="7" id="0" timestep="46.00">
<lanes>
<lane id="-11627689_1" queueing_length="13.50" queueing_length_experimental="13.50" queueing_time="32.00"/>
<lane id="-11627689_2" queueing_length="6.03" queueing_length_experimental="6.03" queueing_time="2.00"/>
<lane id="-23918286#1_0" queueing_length="6.00" queueing_length_experimental="6.00" queueing_time="14.00"/>
<lane id="-23918286#1_1" queueing_length="6.00" queueing_length_experimental="6.00" queueing_time="12.00"/>
<lane id="-23918286#1_2" queueing_length="6.00" queueing_length_experimental="6.00" queueing_time="9.00"/>
<lane id="-29084716#2_1" queueing_length="6.00" queueing_length_experimental="6.00" queueing_time="19.00"/>
<lane id="24808934_0" queueing_length="0.00" queueing_length_experimental="271.69" queueing_time="0.00"/>
</lanes>
</data>
<data count="7" id="0" timestep="47.00">
<lanes>
<lane id="-11627689_1" queueing_length="13.50" queueing_length_experimental="13.50" queueing_time="33.00"/>
<lane id="-11627689_2" queueing_length="6.00" queueing_length_experimental="6.00" queueing_time="3.00"/>
<lane id="-23918286#1_0" queueing_length="6.00" queueing_length_experimental="6.00" queueing_time="15.00"/>
<lane id="-23918286#1_1" queueing_length="6.00" queueing_length_experimental="6.00" queueing_time="13.00"/>
<lane id="-23918286#1_2" queueing_length="6.00" queueing_length_experimental="6.00" queueing_time="10.00"/>
<lane id="-29084716#2_1" queueing_length="6.00" queueing_length_experimental="6.00" queueing_time="20.00"/>
<lane id="24808934_0" queueing_length="0.00" queueing_length_experimental="271.69" queueing_time="0.00"/>
</lanes>
</data>
<data count="6" id="0" timestep="48.00">
<lanes>
<lane id="-11627689_1" queueing_length="13.50" queueing_length_experimental="13.50" queueing_time="34.00"/>
<lane id="-11627689_2" queueing_length="6.00" queueing_length_experimental="6.00" queueing_time="4.00"/>
<lane id="-23918286#1_0" queueing_length="6.00" queueing_length_experimental="6.00" queueing_time="16.00"/>
<lane id="-23918286#1_1" queueing_length="6.00" queueing_length_experimental="6.00" queueing_time="14.00"/>
<lane id="-23918286#1_2" queueing_length="6.00" queueing_length_experimental="6.00" queueing_time="11.00"/>
<lane id="24808934_0" queueing_length="0.00" queueing_length_experimental="271.69" queueing_time="0.00"/>
</lanes>
</data>
<data count="6" id="0" timestep="49.00">
<lanes>
<lane id="-11627689_1" queueing_length="13.50" queueing_length_experimental="13.50" queueing_time="35.00"/>
<lane id="-11627689_2" queueing_length="6.00" queueing_length_experimental="6.00" queueing_time="5.00"/>
<lane id="-23918286#1_0" queueing_length="6.00" queueing_length_experimental="6.00" queueing_time="17.00"/>
<lane id="-23918286#1_1" queueing_length="6.00" queueing_length_experimental="6.00" queueing_time="15.00"/>
<lane id="-23918286#1_2" queueing_length="6.00" queueing_length_experimental="6.00" queueing_time="12.00"/>
<lane id="24808934_0" queueing_length="0.00" queueing_length_experimental="271.69" queueing_time="0.00"/>
</lanes>
</data>
<data count="7" id="0" timestep="50.00">
<lanes>
<lane id="-11627689_1" queueing_length="13.50" queueing_length_experimental="13.50" queueing_time="36.00"/>
<lane id="-11627689_2" queueing_length="6.00" queueing_length_experimental="6.00" queueing_time="6.00"/>
<lane id="-155542976_0" queueing_length="0.00" queueing_length_experimental="35.16" queueing_time="0.00"/>
<lane id="-23918286#1_0" queueing_length="6.00" queueing_length_experimental="6.00" queueing_time="18.00"/>
<lane id="-23918286#1_1" queueing_length="6.00" queueing_length_experimental="6.00" queueing_time="16.00"/>
<lane id="-23918286#1_2" queueing_length="6.00" queueing_length_experimental="6.00" queueing_time="13.00"/>
<lane id="24808934_0" queueing_length="0.00" queueing_length_experimental="271.69" queueing_time="0.00"/>
</lanes>
</data>
<data count="8" id="0" timestep="51.00">
<lanes>
<lane id="-11627689_1" queueing_length="13.50" queueing_length_experimental="13.50" queueing_time="37.00"/>
<lane id="-11627689_2" queueing_length="6.00" queueing_length_experimental="6.00" queueing_time="7.00"/>
<lane id="-155542976_0" queueing_length="0.00" queueing_length_experimental="34.51" queueing_time="0.00"/>
<lane id="-23918286#1_0" queueing_length="6.00" queueing_length_experimental="6.00" queueing_time="19.00"/>
<lane id="-23918286#1_1" queueing_length="6.00" queueing_length_experimental="6.00" queueing_time="17.00"/>
<lane id="-23918286#1_2" queueing_length="6.00" queueing_length_experimental="6.00" queueing_time="14.00"/>
<lane id="-697574936#1_0" queueing_length="0.00" queueing_length_experimental="6.02" queueing_time="0.00"/>
<lane id="24808934_0" queueing_length="0.00" queueing_length_experimental="271.69" queueing_time="0.00"/>
</lanes>
</data>
<data count="7" id="0" timestep="52.00">
<lanes>
<lane id="-11627689_1" queueing_length="13.50" queueing_length_experimental="13.50" queueing_time="38.00"/>
<lane id="-11627689_2" queueing_length="6.00" queueing_length_experimental="6.00" queueing_time="8.00"/>
<lane id="-23918286#1_0" queueing_length="6.00" queueing_length_experimental="6.00" queueing_time="20.00"/>
<lane id="-23918286#1_1" queueing_length="6.00" queueing_length_experimental="6.00" queueing_time="18.00"/>
<lane id="-23918286#1_2" queueing_length="6.00" queueing_length_experimental="6.00" queueing_time="15.00"/>
<lane id="-697574936#1_0" queueing_length="6.01" queueing_length_experimental="6.01" queueing_time="1.00"/>
<lane id="24808934_0" queueing_length="0.00" queueing_length_experimental="271.69" queueing_time="0.00"/>
</lanes>
</data>
<data count="9" id="0" timestep="53.00">
<lanes>
<lane id="-11627689_1" queueing_length="13.50" queueing_length_experimental="13.50" queueing_time="39.00"/>
<lane id="-11627689_2" queueing_length="6.00" queueing_length_experimental="6.00" queueing_time="9.00"/>
<lane id="-23918286#1_0" queueing_length="6.00" queueing_length_experimental="6.00" queueing_time="21.00"/>
<lane id="-23918286#1_1" queueing_length="6.00" queueing_length_experimental="6.00" queueing_time="19.00"/>
<lane id="-23918286#1_2" queueing_length="6.00" queueing_length_experimental="6.00" queueing_time="16.00"/>
<lane id="-34569965_0" queueing_length="0.00" queueing_length_experimental="6.07" queueing_time="0.00"/>
<lane id="-42992977#1_0" queueing_length="0.00" queueing_length_experimental="6.11" queueing_time="0.00"/>
<lane id="-697574936#1_0" queueing_length="6.00" queueing_length_experimental="6.00" queueing_time="2.00"/>
<lane id="24808934_0" queueing_length="0.00" queueing_length_experimental="271.69" queueing_time="0.00"/>
</lanes>
</data>
<data count="9" id="0" timestep="54.00">
<lanes>
<lane id="-11627689_1" queueing_length="13.50" queueing_length_experimental="13.50" queueing_time="40.00"/>
<lane id="-11627689_2" queueing_length="6.00" queueing_length_experimental="6.00" queueing_time="10.00"/>
<lane id="-23918286#1_0" queueing_length="6.00" queueing_length_experimental="6.00" queueing_time="22.00"/>
<lane id="-23918286#1_1" queueing_length="6.00" queueing_length_experimental="13.58" queueing_time="20.00"/>
<lane id="-23918286#1_2" queueing_length="6.00" queueing_length_experimental="6.00" queueing_time="17.00"/>
<lane id="-34569965_0" queueing_length="6.00" queueing_length_experimental="13.77" queueing_time="1.00"/>
<lane id="-42992977#1_0" queueing_length="6.02" queueing_length_experimental="6.02" queueing_time="1.00"/>
<lane id="-697574936#1_0" queueing_length="6.00" queueing_length_experimental="6.00" queueing_time="3.00"/>
<lane id="24808934_0" queueing_length="0.00" queueing_length_experimental="271.69" queueing_time="0.00"/>
</lanes>
</data>
<data count="9" id="0" timestep="55.00">
<lanes>
<lane id="-11627689_1" queueing_length="13.50" queueing_length_experimental="13.50" queueing_time="41.00"/>
<lane id="-11627689_2" queueing_length="6.00" queueing_length_experimental="6.00" queueing_time="11.00"/>
<lane id="-23918286#1_0" queueing_length="6.00" queueing_length_experimental="6.00" queueing_time="23.00"/>
<lane id="-23918286#1_1" queueing_length="13.52" queueing_length_experimental="13.52" queueing_time="21.00"/>
<lane id="-23918286#1_2" queueing_length="6.00" queueing_length_experimental="6.00" queueing_time="18.00"/>
<lane id="-34569965_0" queueing_length="6.00" queueing_length_experimental="13.59" queueing_time="2.00"/>
<lane id="-42992977#1_0" queueing_length="6.01" queueing_length_experimental="6.01" queueing_time="2.00"/>
<lane id="-697574936#1_0" queueing_length="6.00" queueing_length_experimental="6.00" queueing_time="4.00"/>
<lane id="24808934_0" queueing_length="0.00" queueing_length_experimental="271.69" queueing_time="0.00"/>
</lanes>
</data>
<data count="9" id="0" timestep="56.00">
<lanes>
<lane id="-11627689_1" queueing_length="13.50" queueing_length_experimental="13.50" queueing_time="42.00"/>
<lane id="-11627689_2" queueing_length="6.00" queueing_length_experimental="6.00" queueing_time="12.00"/>
<lane id="-23918286#1_0" queueing_length="6.00" queueing_length_experimental="6.00" queueing_time="24.00"/>
<lane id="-23918286#1_1" queueing_length="13.51" queueing_length_experimental="13.51" queueing_time="22.00"/>
<lane id="-23918286#1_2" queueing_length="6.00" queueing_length_experimental="6.00" queueing_time="19.00"/>
<lane id="-34569965_0" queueing_length="13.52" queueing_length_experimental="13.52" queueing_time="1.00"/>
<lane id="-42992977#1_0" queueing_length="6.00" queueing_length_experimental="6.00" queueing_time="3.00"/>
<lane id="-697574936#1_0" queueing_length="6.00" queueing_length_experimental="6.00" queueing_time="5.00"/>
<lane id="24808934_0" queueing_length="0.00" queueing_length_experimental="271.69" queueing_time="0.00"/>
</lanes>
</data>
<data count="8" id="0" timestep="57.00">
<lanes>
<lane id="-11627689_1" queueing_length="13.50" queueing_length_experimental="13.50" queueing_time="43.00"/>
<lane id="-11627689_2" queueing_length="6.00" queueing_length_experimental="6.00" queueing_time="13.00"/>
<lane id="-23918286#1_0" queueing_length="6.00" queueing_length_experimental="6.00" queueing_time="25.00"/>
<lane id="-23918286#1_1" queueing_length="13.50" queueing_length_experimental="13.50" queueing_time="23.00"/>
<lane id="-23918286#1_2" queueing_length="6.00" queueing_length_experimental="6.00" queueing_time="20.00"/>
<lane id="-42992977#1_0" queueing_length="6.00" queueing_length_experimental="6.00" queueing_time="4.00"/>
<lane id="-697574936#1_0" queueing_length="6.00" queueing_length_experimental="6.00" queueing_time="6.00"/>
<lane id="24808934_0" queueing_length="0.00" queueing_length_experimental="271.44" queueing_time="0.00"/>
</lanes>
</data>
<data count="10" id="0" timestep="58.00">
<lanes>
<lane id=":cluster_262222529_332568486_332569785_9_0" queueing_length="0.00" queueing_length_experimental="6.04" queueing_time="0.00"/>
<lane id="-11627689_1" queueing_length="13.50" queueing_length_experimental="13.50" queueing_time="44.00"/>
<lane id="-11627689_2" queueing_length="6.00" queueing_length_experimental="6.00" queueing_time="14.00"/>
<lane id="-23918286#1_0" queueing_length="6.00" queueing_length_experimental="6.00" queueing_time="26.00"/>
<lane id="-23918286#1_1" queueing_length="13.50" queueing_length_experimental="13.50" queueing_time="24.00"/>