<?xml version="1.0" encoding="UTF-8"?>

<!-- generated on 2022-02-07 13:31:02 by Eclipse SUMO sumo Version 1.11.0
<configuration xmlns:xsi="http://www.w3.org/2001/XMLSchema-instance" xsi:noNamespaceSchemaLocation="http://sumo.dlr.de/xsd/sumoConfiguration.xsd">

    <input>
        <net-file value="osm.net.xml"/>
        <route-files value="trips.trips.xml"/>
        <additional-files value="osm_stops.add.xml"/>
    </input>

    <output>
        <vehroute-output value="vehroutes.xml"/>
        <stop-output value="stopinfos.xml"/>
    </output>

    <time>
        <begin value="0"/>
    </time>

    <processing>
        <ignore-route-errors value="true"/>
    </processing>

    <routing>
        <device.rerouting.adaptation-interval value="0"/>
    </routing>

    <report>
        <aggregate-warnings value="5"/>
        <error-log value="trips.trips.xml.errorlog"/>
        <no-step-log value="true"/>
    </report>

</configuration>
-->

<routes xmlns:xsi="http://www.w3.org/2001/XMLSchema-instance" xsi:noNamespaceSchemaLocation="http://sumo.dlr.de/xsd/routes_file.xsd">
    <vehicle id="0_train_ICE_26:0" type="pt_train" depart="12.00" departLane="0" arrival="89.00">
        <route edges="24808934"/>
        <stop busStop="114242594" duration="30.00"/>
    </vehicle>

    <vehicle id="3_bus_5014:1" type="pt_bus" depart="53.00" departLane="0" arrival="99.00">
        <route edges="303800726 23389873 23390822"/>
    </vehicle>

    <vehicle id="4_bus_5014:2" type="pt_bus" depart="59.00" departLane="0" arrival="105.00">
        <route edges="303800726 23389873 23390822"/>
    </vehicle>

    <vehicle id="9_bus_5015:3" type="pt_bus" depart="159.00" departLane="0" arrival="282.00">
        <route edges="-155467734 26945309#3 26945309#4 317130966 27107042 38851173 369711987 23903578"/>
        <stop busStop="1116169525" duration="30.00"/>
    </vehicle>

    <vehicle id="10_bus_5015:4" type="pt_bus" depart="173.00" departLane="0" arrival="318.00">
        <route edges="-155542976 -369855809 -29084716#2 697574936#0 915457925#0 915457925#1 26945311#1"/>
        <stop busStop="1116169543" duration="30.00"/>
    </vehicle>

    <vehicle id="1_train_ICE_26:1" type="pt_train" depart="22.00" departLane="0" arrival="325.00">
        <route edges="145893134#0 145893134#1 316263151 460743688#1 460743203#1"/>
        <stop busStop="371334276" duration="30.00"/>
    </vehicle>

    <vehicle id="5_bus_5014:3" type="pt_bus" depart="64.00" departLane="0" arrival="394.00">
        <route edges="-155542976 -369855809 -29084716#2 697574936#0 915457925#0 915457925#1 26945311#1 -155467734 26945309#3 26945309#4 317130966 27107042 -118607900 -194163682 -390705309#1 -390705309#0 -411014865 42992977#1"/>
        <stop busStop="3126301507" duration="30.00"/>
    </vehicle>

    <vehicle id="16_bus_5013:4" type="pt_bus" depart="244.00" departLane="0" arrival="398.00">
        <route edges="-155467734"/>
        <stop busStop="1116169506" duration="30.00"/>
    </vehicle>

    <vehicle id="15_bus_5013:3" type="pt_bus" depart="238.00" departLane="0" arrival="442.00">
        <route edges="-155467734 26945309#3 26945309#4 317130966 27107042 -118607900 -194163682 -390705309#1 -390705309#0 -411014865 42992977#1"/>
        <stop busStop="1116169506" duration="30.00"/>
    </vehicle>

    <vehicle id="19_bus_5012:2" type="pt_bus" depart="342.00" departLane="0" arrival="482.00">
        <route edges="-155467734 26945309#3 26945309#4 317130966 27107042 38851173 369711987 23903578"/>
        <stop busStop="1116169506" duration="30.00"/>
    </vehicle>

    <vehicle id="8_bus_5015:2" type="pt_bus" depart="127.00" departLane="0" arrival="567.00">
        <route edges="-96306832#2 -96306832#1 -96306832#0 -96306840#0 15021023 -173922269#1 -173922269#0 -123546523#1 -123546523#0 -96306828 -13200874#1 -13200874#0 11818116 30537708 -118607888 -23918359 -23918356 -23918286#2 -23918286#1 -23918281#0 46191510#0 -124977959#4 -124977959#2 -124977959#1 -124977959#0 -155467732#0 -155467734"/>
        <stop busStop="-1116252422" duration="30.00"/>
        <stop busStop="-1115656884" duration="30.00"/>
        <stop busStop="1116169525" duration="30.00"/>
    </vehicle>

    <vehicle id="18_bus_5012:1" type="pt_bus" depart="326.00" departLane="0" arrival="571.00">
        <route edges="-102809770#1 29317738#1 -24694092#1 46191489#0 390709999 143183286 186198379 12273115 143183287 391921422 23918490#1 23918493 393505712#0 -23918281#0 27496690#0 27496690#1 83687773 118607900 38851173 369711987 23903578"/>
        <stop busStop="-1181280584" duration="30.00"/>
    </vehicle>

    <vehicle id="20_bus_5012:3" type="pt_bus" depart="362.00" departLane="0" arrival="581.00">
        <route edges="-102809770#1 29317738#1 -24694092#1 46191489#0 390709999 143183286 186198379 12273115 143183287 391921422 23918490#1 23918493 393505712#0 -23918281#0 46191510#0 -124977959#4 -124977959#2 -124977959#1 -124977959#0 -155467732#0 -155467734"/>
        <stop busStop="-1181280584" duration="30.00"/>
    </vehicle>

    <vehicle id="30_bus_5006:1" type="pt_bus" depart="465.00" departLane="0" arrival="586.00">
        <route edges="-155467734 26945309#3 26945309#4 317130966 27107042 -118607900 -194163682 -390705309#1 -390705309#0 -411014865 42992977#1"/>
        <stop busStop="1116169501" duration="30.00"/>
    </vehicle>

    <vehicle id="7_bus_5015:1" type="pt_bus" depart="94.00" departLane="0" arrival="591.00">
        <route edges="26945311#1 -155467734 -297225622 -915457925#0 -697574936#1 -46191510#1 -11627689 23918286#0 23918286#2 23918356 23918359 118607888 -30537708 -11818116 13200874#0 13200874#1 36335706 123546523#0 123546523#1 173922269#0 173922269#1 -15021023 13215491 96306840#1 96306832#1 96306832#2"/>
        <stop busStop="1116169543" duration="30.00"/>
        <stop busStop="1115656880" duration="30.00"/>
        <stop busStop="1116252423" duration="30.00"/>
    </vehicle>

    <vehicle id="35_train_ICE_26:2" type="pt_train" depart="533.00" departLane="0" arrival="610.00">
        <route edges="24808934"/>
        <stop busStop="114242594" duration="30.00"/>
    </vehicle>

    <vehicle id="36_train_Bleckeder_Kleinbahn:_Lüneburg_=_Bleckede:0" type="pt_train" depart="533.00" departLane="0" arrival="615.00">
        <route edges="107583219#1 32855184#1"/>
        <stop busStop="347321889" duration="30.00"/>
    </vehicle>

    <vehicle id="39_bus_5300:0" type="pt_bus" depart="555.00" departLane="0" arrival="655.00">
        <route edges="26945311#1 314292899 124977959#0 124977959#1 124977959#2 124977959#3 29084716#1 155542968 155542976"/>
        <stop busStop="1116169505" duration="30.00"/>
    </vehicle>

    <vehicle id="2_bus_5014:0" type="pt_bus" depart="50.00" departLane="0" arrival="657.00">
        <route edges="-155542976 -369855809 -29084716#2 697574936#0 915457925#0 915457925#1 26945311#1 -155467734 -297225622 -915457925#0 -697574936#1 -46191510#1 -11627689 23918286#0 23918286#2 23918356 23918359 118607888 -30537708 -11818116 13200874#0 13200874#1 96294225 -36335707#0 -13200874#1 -13200874#0 11818116 30537708 -118607888 -23918359 -29408065#3 -29408065#2 -29408065#1 -29408065#0 -29408064 -155364235 26832251 118607905 156402089#0 156402089#1 23390804 -96294232 -303800726"/>
        <stop busStop="3126301507" duration="30.00"/>
        <stop busStop="1115656902" duration="30.00"/>
        <stop busStop="-1116169520" duration="30.00"/>
    </vehicle>

    <vehicle id="29_bus_5006:0" type="pt_bus" depart="458.00" departLane="0" arrival="669.00">
        <route edges="-42992977#1 -23389835#0 -186632793#4 -186632793#3 -186632793#2 -186632793#0 -96311855#2 -23918281#0 46191510#0 -124977959#4 -124977959#2 -124977959#1 -124977959#0 -155467732#0 -155467734"/>
        <stop busStop="1116169501" duration="30.00"/>
    </vehicle>

    <vehicle id="32_bus_5009:1" type="pt_bus" depart="525.00" departLane="0" arrival="683.00">
        <route edges="-155467734 26945309#3 26945309#4 317130966 27107042 -118607900 -194163682 -390705309#1 -390705309#0 -411014865 42992977#1"/>
        <stop busStop="1116169506" duration="30.00"/>
    </vehicle>

    <vehicle id="12_bus_5013:0" type="pt_bus" depart="185.00" departLane="0" arrival="703.00">
        <route edges="-155467734 -297225622 -915457925#0 -697574936#1 -46191510#1 -11627689 23918286#0 23918286#2 23918356 23918359 118607888 -30537708 -11818116 13200874#0 13200874#1 96294225 -36335707#0 -13200874#1 -13200874#0 11818116 30537708 -118607888 -23918359 -29408065#3 -29408065#2 -29408065#1 -29408065#0 -29408064 -155364235 26832251 118607905 156402089#0 156402089#1 23390804 23390822"/>
        <stop busStop="1116169506" duration="30.00"/>
        <stop busStop="1115656902" duration="30.00"/>
    </vehicle>

    <vehicle id="27_bus_5001:0" type="pt_bus" depart="446.00" departLane="0" arrival="718.00">
        <route edges="80152409 392719989 118607895 12273115 143183287 391921422 23918490#1 23918493 393505712#0 -23918281#0 46191510#0 -124977959#4 -124977959#2 -124977959#1 -124977959#0 -124977960 -332577351"/>
        <stop busStop="-1116169491" duration="30.00"/>
    </vehicle>

    <vehicle id="11_bus_5015:5" type="pt_bus" depart="181.00" departLane="0" arrival="720.00">
        <route edges="-96306832#2 -96306832#1 -96306832#0 -96306840#0 15021023 -173922269#1 -173922269#0 -123546523#1 -123546523#0 -96306828 -13200874#1 -13200874#0 11818116 30537708 -118607888 -23918359 -23918356 -23918286#2 -23918286#1 -23918281#0 46191510#0 -124977959#4 -124977959#2 -124977959#1 -124977959#0 -155467732#0 -155467734 26945309#3 26945309#4 317130966 27107042 38851173 369711987 23903578"/>
        <stop busStop="-1116252422" duration="30.00"/>
        <stop busStop="-1115656884" duration="30.00"/>
        <stop busStop="1116169525" duration="30.00"/>
    </vehicle>

    <vehicle id="13_bus_5013:1" type="pt_bus" depart="193.00" departLane="0" arrival="731.00">
        <route edges="-155467734 -297225622 -915457925#0 -697574936#1 -46191510#1 -11627689 23918286#0 23918286#2 23918356 23918359 118607888 -30537708 -11818116 13200874#0 13200874#1 96294225 -36335707#0 -13200874#1 -13200874#0 11818116 30537708 -118607888 -23918359 -29408065#3 -29408065#2 -29408065#1 -29408065#0 -29408064 -155364235 26832251 118607905 156402089#0 156402089#1 23390804 23390822"/>
        <stop busStop="1116169506" duration="30.00"/>
        <stop busStop="1115656902" duration="30.00"/>
    </vehicle>

    <vehicle id="6_bus_5015:0" type="pt_bus" depart="91.00" departLane="0" arrival="780.00">
        <route edges="-155542976 -369855809 -29084716#2 697574936#0 915457925#0 915457925#1 26945311#1 -155467734 -297225622 -915457925#0 -697574936#1 -46191510#1 -11627689 23918286#0 23918286#2 23918356 23918359 118607888 -30537708 -11818116 13200874#0 13200874#1 36335706 123546523#0 123546523#1 173922269#0 173922269#1 -15021023 13215491 96306840#1 96306832#1 96306832#2"/>
        <stop busStop="1116169543" duration="30.00"/>
        <stop busStop="1115656880" duration="30.00"/>
        <stop busStop="1116252423" duration="30.00"/>
    </vehicle>

    <vehicle id="49_bus_5002:1" type="pt_bus" depart="758.00" departLane="0" arrival="803.00">
        <route edges="303800726 23389873 23390822"/>
    </vehicle>

    <vehicle id="46_train_RE3:0" type="pt_train" depart="729.00" departLane="0" arrival="806.00">
        <route edges="32855180"/>
        <stop busStop="347321892" duration="30.00"/>
    </vehicle>

    <vehicle id="14_bus_5013:2" type="pt_bus" depart="202.00" departLane="0" arrival="862.00">
        <route edges="-155467734 -297225622 -915457925#0 -697574936#1 -46191510#1 -11627689 23918286#0 23918286#2 23918356 23918359 118607888 -30537708 -11818116 13200874#0 13200874#1 96294225 -36335707#0 -13200874#1 -13200874#0 11818116 30537708 -118607888 -23918359 -29408065#3 -29408065#2 -29408065#1 -29408065#0 -29408064 -155364235 26832251 118607905 156402089#0 156402089#1 23390804 23390822 39258214 35470096#0 35470096#1 35470096#2 1012086133 83687778 -18925169 -899418894 -85220995#0"/>
        <stop busStop="1116169506" duration="30.00"/>
        <stop busStop="1115656902" duration="30.00"/>
        <stop busStop="1116252424" duration="30.00"/>
    </vehicle>

    <vehicle id="48_bus_5010:0" type="pt_bus" depart="757.00" departLane="1" arrival="871.00">
        <route edges="-155542976 -369855809 -29084716#2 -124977959#4 -124977959#2 -124977959#1 -124977959#0 -155467732#0 -155467734"/>
        <stop busStop="1116169506" duration="30.00"/>
    </vehicle>

    <vehicle id="17_bus_5012:0" type="pt_bus" depart="310.00" departLane="1" arrival="883.00">
        <route edges="-155542976 -369855809 -29084716#2 -124977959#4 -124977959#2 -124977959#1 -124977959#0 -124977960 -332577351 -297225622 -915457925#0 -697574936#1 -46191510#1 -11627689 23918286#0 23918286#2 23918356 23918359 118607888 -30537708 -11818116 13200874#0 13200874#1 36335706 123546523#0 123546523#1 173922269#0 173922269#1 -15021023 -328178779 -549336714 915205870#0 12136260#1 -549336711 102809770#0 102809770#1"/>
        <stop busStop="-1116169505" duration="30.00"/>
        <stop busStop="1115656880" duration="30.00"/>
        <stop busStop="1181280851" duration="30.00"/>
    </vehicle>

    <vehicle id="44_bus_5001:1" type="pt_bus" depart="674.00" departLane="0" arrival="892.00">
        <route edges="-332577351 -297225622 -915457925#0 -697574936#1 -46191510#1 -11627689 -393505712#1 -23918493 -23918490#1 -23918490#0 -143183287 -12273115 -118607895 -392719989 -80152409"/>
        <stop busStop="-1116169491" duration="30.00"/>
    </vehicle>

    <vehicle id="37_bus_5100:0" type="pt_bus" depart="535.00" departLane="0" arrival="909.00">
        <route edges="-96306828 -13200874#1 -13200874#0 11818116 30537708 -118607888 -23918359 -23918356 -23918286#2 -23918286#1 -23918281#0 46191510#0 -124977959#4 -124977959#2 -124977959#1 -124977959#0 -124977960 -332577351 -96306841 314292899 124977959#0 124977959#1 124977959#2 124977959#3 29084716#1 155542968 155542976"/>
        <stop busStop="-1115656884" duration="30.00"/>
        <stop busStop="-1116169491" duration="30.00"/>
    </vehicle>

    <vehicle id="50_bus_5010:1" type="pt_bus" depart="763.00" departLane="1" arrival="909.00">
        <route edges="-155542976 -369855809 -29084716#2 -124977959#4 -124977959#2 -124977959#1 -124977959#0 -155467732#0 -155467734"/>
        <stop busStop="1116169506" duration="30.00"/>
    </vehicle>

    <vehicle id="25_bus_5011:2" type="pt_bus" depart="438.00" departLane="0" arrival="912.00">
        <route edges="26945311#1 -155467734 -297225622 -915457925#0 -697574936#1 -46191510#1 -11627689 23918286#0 23918286#2 23918356 23918359 118607888 -30537708 -11818116 13200874#0 13200874#1 36335706 123546523#0 123546523#1 173922269#0 173922269#1 -15021023 13215491 96306840#1 96306832#1 96306832#2"/>
        <stop busStop="3126301507" duration="30.00"/>
        <stop busStop="1115656880" duration="30.00"/>
        <stop busStop="1116252423" duration="30.00"/>
    </vehicle>

    <vehicle id="51_bus_5010:2" type="pt_bus" depart="791.00" departLane="1" arrival="947.00">
        <route edges="-155542976 -369855809 -29084716#2 -124977959#4 -124977959#2 -124977959#1 -124977959#0 -155467732#0 -155467734"/>
        <stop busStop="1116169506" duration="30.00"/>
    </vehicle>

    <vehicle id="28_bus_5600:0" type="pt_bus" depart="455.00" departLane="0" arrival="951.00">
        <route edges="-332577351 -297225622 -915457925#0 -697574936#1 -46191510#1 -11627689 23918286#0 23918286#2 23918356 23918359 118607888 -30537708 -11818116 13200874#0 13200874#1 36335706 123546523#0 123546523#1 173922269#0 173922269#1 -15021023 13215491 96306840#1 96306832#1 96306832#2"/>
        <stop busStop="-1116169499" duration="30.00"/>
        <stop busStop="1115656880" duration="30.00"/>
        <stop busStop="1116252423" duration="30.00"/>
    </vehicle>

    <vehicle id="21_bus_5011:0" type="pt_bus" depart="397.00" departLane="0" arrival="957.00">
        <route edges="-96306832#2 -96306832#1 -96306832#0 -96306840#0 15021023 -173922269#1 -173922269#0 -123546523#1 -123546523#0 -96306828 -13200874#1 -13200874#0 11818116 30537708 -118607888 -23918359 -23918356 -23918286#2 -23918286#1 -23918281#0 46191510#0 -124977959#4 -124977959#2 -124977959#1 -124977959#0 -155467732#0 -155467734 26945311#1 314292899 124977959#0 124977959#1 124977959#2 124977959#3 29084716#1 155542968 155542976"/>
        <stop busStop="-1116252422" duration="30.00"/>
        <stop busStop="-1115656884" duration="30.00"/>
        <stop busStop="3126301507" duration="30.00"/>
    </vehicle>

    <vehicle id="52_bus_5010:3" type="pt_bus" depart="798.00" departLane="1" arrival="990.00">
        <route edges="-155542976 -369855809 -29084716#2 -124977959#4 -124977959#2 -124977959#1 -124977959#0 -155467732#0 -155467734"/>
        <stop busStop="1116169506" duration="30.00"/>
    </vehicle>

    <vehicle id="26_bus_5011:3" type="pt_bus" depart="440.00" departLane="0" arrival="999.00">
        <route edges="-96306832#2 -96306832#1 -96306832#0 -96306840#0 15021023 -173922269#1 -173922269#0 -123546523#1 -123546523#0 -96306828 -13200874#1 -13200874#0 11818116 30537708 -118607888 -23918359 -23918356 -23918286#2 -23918286#1 -23918281#0 46191510#0 -124977959#4 -124977959#2 -124977959#1 -124977959#0 -155467732#0 -155467734 26945311#1"/>
        <stop busStop="-1116252422" duration="30.00"/>
        <stop busStop="-1115656884" duration="30.00"/>
        <stop busStop="3126301507" duration="30.00"/>
    </vehicle>

    <vehicle id="24_bus_5012:4" type="pt_bus" depart="437.00" departLane="1" arrival="1003.00">
        <route edges="-155542976 -369855809 -29084716#2 -124977959#4 -124977959#2 -124977959#1 -124977959#0 -124977960 -332577351 -297225622 -915457925#0 -697574936#1 -46191510#1 -11627689 23918286#0 23918286#2 23918356 23918359 118607888 -30537708 -11818116 13200874#0 13200874#1 36335706 123546523#0 123546523#1 173922269#0 173922269#1 -15021023 -328178779 -549336714 915205870#0 12136260#1 -549336711 102809770#0 102809770#1"/>
        <stop busStop="-1116169505" duration="30.00"/>
        <stop busStop="1115656880" duration="30.00"/>
        <stop busStop="1181280851" duration="30.00"/>
    </vehicle>

    <vehicle id="38_bus_5110:0" type="pt_bus" depart="557.00" departLane="0" arrival="1005.00">
        <route edges="-96306828 -13200874#1 -13200874#0 11818116 30537708 -118607888 -23918359 -23918356 -23918286#2 -23918286#1 -23918281#0 46191510#0 -124977959#4 -124977959#2 -124977959#1 -124977959#0 -124977960 -332577351 -96306841 314292899 124977959#0 124977959#1 124977959#2 124977959#3 29084716#1 155542968 155542976"/>
        <stop busStop="-1115656884" duration="30.00"/>
        <stop busStop="-1116169491" duration="30.00"/>
    </vehicle>

    <vehicle id="53_bus_5010:4" type="pt_bus" depart="843.00" departLane="1" arrival="1027.00">
        <route edges="-155542976 -369855809 -29084716#2 -124977959#4 -124977959#2 -124977959#1 -124977959#0 -155467732#0 -155467734"/>
        <stop busStop="1116169506" duration="30.00"/>
    </vehicle>

    <vehicle id="22_bus_5011:1" type="pt_bus" depart="419.00" departLane="0" arrival="1029.00">
        <route edges="-155542976 -369855809 -29084716#2 697574936#0 915457925#0 915457925#1 26945311#1 -155467734 -297225622 -915457925#0 -697574936#1 -46191510#1 -11627689 23918286#0 23918286#2 23918356 23918359 118607888 -30537708 -11818116 13200874#0 13200874#1 36335706 123546523#0 123546523#1 173922269#0 173922269#1 -15021023 13215491 96306840#1 96306832#1 96306832#2"/>
        <stop busStop="3126301507" duration="30.00"/>
        <stop busStop="1115656880" duration="30.00"/>
        <stop busStop="1116252423" duration="30.00"/>
    </vehicle>

    <vehicle id="58_bus_5002:4" type="pt_bus" depart="1001.00" departLane="0" arrival="1047.00">
        <route edges="303800726 23389873 23390822"/>
    </vehicle>

    <vehicle id="59_bus_5002:5" type="pt_bus" depart="1010.00" departLane="0" arrival="1055.00">
        <route edges="303800726 23389873 23390822"/>
    </vehicle>

    <vehicle id="55_bus_5010:6" type="pt_bus" depart="869.00" departLane="1" arrival="1065.00">
        <route edges="-155542976 -369855809 -29084716#2 -124977959#4 -124977959#2 -124977959#1 -124977959#0 -155467732#0 -155467734"/>
        <stop busStop="1116169506" duration="30.00"/>
    </vehicle>

    <vehicle id="60_bus_5002:6" type="pt_bus" depart="1019.00" departLane="0" arrival="1065.00">
        <route edges="303800726 23389873 23390822"/>
    </vehicle>

    <vehicle id="31_bus_5009:0" type="pt_bus" depart="493.00" departLane="0" arrival="1080.00">
        <route edges="26945311#1 -155467734 -297225622 -915457925#0 -697574936#1 -46191510#1 -11627689 23918286#0 23918286#2 23918356 23918359 118607888 -30537708 -11818116 13200874#0 13200874#1 96294225 -36335707#0 -13200874#1 -13200874#0 11818116 30537708 -118607888 -23918359 -29408065#3 -29408065#2 -29408065#1 -29408065#0 -29408064 -155364235 26832251 118607905 156402089#0 156402089#1 23390804 23390822 39258214 35470096#0 35470096#1 35470096#2 1012086133 83687778 -18925169 -899418894 -85220995#0"/>
        <stop busStop="1116169495" duration="30.00"/>
        <stop busStop="1115656902" duration="30.00"/>
        <stop busStop="1116252424" duration="30.00"/>
    </vehicle>

    <vehicle id="34_bus_5201:0" type="pt_bus" depart="529.00" departLane="0" arrival="1089.00">
        <route edges="-332577351 -297225622 -915457925#0 -697574936#1 -46191510#1 -11627689 23918286#0 23918286#2 23918356 23918359 118607888 -30537708 -11818116 13200874#0 13200874#1 36335706 123546523#0 123546523#1 173922269#0 173922269#1 -15021023 -328178779 -549336714 915205870#0 -391923088 -34569965 -115597416#1 -115597416#0 -391923087 -31540126"/>
        <stop busStop="-1116169491" duration="30.00"/>
        <stop busStop="1115656880" duration="30.00"/>
        <stop busStop="-3211150433" duration="30.00"/>
    </vehicle>

    <vehicle id="54_bus_5010:5" type="pt_bus" depart="848.00" departLane="1" arrival="1102.00">
        <route edges="-155542976 -369855809 -29084716#2 -124977959#4 -124977959#2 -124977959#1 -124977959#0 -155467732#0 -155467734"/>
        <stop busStop="1116169506" duration="30.00"/>
    </vehicle>

    <vehicle id="41_bus_5003:0" type="pt_bus" depart="596.00" departLane="0" arrival="1108.00">
        <route edges="26945311#1 -155467734 -297225622 -915457925#0 -697574936#1 -46191510#1 -11627689 23918286#0 23918286#2 23918356 23918359 118607888 -30537708 -11818116 13200874#0 13200874#1 36335706 123546523#0 123546523#1 173922269#0 173922269#1 -15021023 13215491 96306840#1 96306832#1 96306832#2"/>
        <stop busStop="1116169527" duration="30.00"/>
        <stop busStop="1115656880" duration="30.00"/>
        <stop busStop="1116252423" duration="30.00"/>
    </vehicle>

    <vehicle id="23_bus_5014:4" type="pt_bus" depart="424.00" departLane="0" arrival="1125.00">
        <route edges="-155542976 -369855809 -29084716#2 697574936#0 915457925#0 915457925#1 26945311#1 -155467734 -297225622 -915457925#0 -697574936#1 -46191510#1 -11627689 23918286#0 23918286#2 23918356 23918359 118607888 -30537708 -11818116 13200874#0 13200874#1 96294225 -36335707#0 -13200874#1 -13200874#0 11818116 30537708 -118607888 -23918359 -29408065#3 -29408065#2 -29408065#1 -29408065#0 -29408064 -155364235 26832251 118607905 156402089#0 156402089#1 23390804 -96294232 -303800726"/>
        <stop busStop="3126301507" duration="30.00"/>
        <stop busStop="1115656902" duration="30.00"/>
        <stop busStop="-1116169520" duration="30.00"/>
    </vehicle>

    <vehicle id="40_bus_5700:0" type="pt_bus" depart="578.00" departLane="1" arrival="1151.00">
        <route edges="-155542976 -369855809 -29084716#2 -124977959#4 -124977959#2 -124977959#1 -124977959#0 -124977960 -332577351 -297225622 -915457925#0 -697574936#1 -46191510#1 -11627689 23918286#0 23918286#2 23918356 23918359 118607888 -30537708 -11818116 13200874#0 13200874#1 36335706 123546523#0 123546523#1 173922269#0 173922269#1 -15021023 13215491 96306840#1 96306832#1 96306832#2"/>
        <stop busStop="-1116169499" duration="30.00"/>
        <stop busStop="1115656880" duration="30.00"/>
        <stop busStop="1116252423" duration="30.00"/>
    </vehicle>

    <vehicle id="42_bus_5003:1" type="pt_bus" depart="629.00" departLane="0" arrival="1189.00">
        <route edges="26945311#1 -155467734 -297225622 -915457925#0 -697574936#1 -46191510#1 -11627689 23918286#0 23918286#2 23918356 23918359 118607888 -30537708 -11818116 13200874#0 13200874#1 36335706 123546523#0 123546523#1 173922269#0 173922269#1 -15021023 13215491 96306840#1 96306832#1 96306832#2"/>
        <stop busStop="1116169527" duration="30.00"/>
        <stop busStop="1115656880" duration="30.00"/>
        <stop busStop="1116252423" duration="30.00"/>
    </vehicle>

    <vehicle id="45_bus_5003:3" type="pt_bus" depart="680.00" departLane="0" arrival="1193.00">
        <route edges="-96306832#2 -96306832#1 -96306832#0 -96306840#0 15021023 -173922269#1 -173922269#0 -123546523#1 -123546523#0 -96306828 -13200874#1 -13200874#0 11818116 30537708 -118607888 -23918359 -23918356 -23918286#2 -23918286#1 -23918281#0 46191510#0 -124977959#4 -124977959#2 -124977959#1 -124977959#0 -155467732#0 -155467734 26945311#1"/>
        <stop busStop="-1116252422" duration="30.00"/>
        <stop busStop="-1115656884" duration="30.00"/>
        <stop busStop="1116169527" duration="30.00"/>
    </vehicle>

    <vehicle id="61_bus_5010:7" type="pt_bus" depart="1058.00" departLane="0" arrival="1200.00">
        <route edges="-155467734 -96306841 314292899 124977959#0 124977959#1 124977959#2 124977959#3 29084716#1 155542968 155542976"/>
        <stop busStop="1116169506" duration="30.00"/>
    </vehicle>

    <vehicle id="43_bus_5003:2" type="pt_bus" depart="630.00" departLane="0" arrival="1231.00">
        <route edges="-96306832#2 -96306832#1 -96306832#0 -96306840#0 15021023 -173922269#1 -173922269#0 -123546523#1 -123546523#0 -96306828 -13200874#1 -13200874#0 11818116 30537708 -118607888 -23918359 -23918356 -23918286#2 -23918286#1 -23918281#0 46191510#0 -124977959#4 -124977959#2 -124977959#1 -124977959#0 -155467732#0 -155467734 26945311#1"/>
        <stop busStop="-1116252422" duration="30.00"/>
        <stop busStop="-1115656884" duration="30.00"/>
        <stop busStop="1116169527" duration="30.00"/>
    </vehicle>

    <vehicle id="47_bus_5002:0" type="pt_bus" depart="740.00" departLane="0" arrival="1237.00">
        <route edges="26945311#1 -155467734 -297225622 -915457925#0 -697574936#1 -46191510#1 -11627689 23918286#0 23918286#2 23918356 23918359 118607888 -30537708 -11818116 13200874#0 13200874#1 96294225 -36335707#0 -13200874#1 -13200874#0 11818116 30537708 -118607888 -23918359 -29408065#3 -29408065#2 -29408065#1 -29408065#0 -29408064 -155364235 26832251 118607905 156402089#0 156402089#1 23390804 -96294232 -303800726"/>
        <stop busStop="1116169495" duration="30.00"/>
        <stop busStop="1115656902" duration="30.00"/>
        <stop busStop="-1116169520" duration="30.00"/>
    </vehicle>

    <vehicle id="62_bus_5010:8" type="pt_bus" depart="1072.00" departLane="0" arrival="1253.00">
        <route edges="-155467734 -96306841 314292899 124977959#0 124977959#1 124977959#2 124977959#3 29084716#1 155542968 155542976"/>
        <stop busStop="1116169506" duration="30.00"/>
    </vehicle>

    <vehicle id="71_bus_5014:7" type="pt_bus" depart="1207.00" departLane="0" arrival="1253.00">
        <route edges="303800726 23389873 23390822"/>
    </vehicle>

    <vehicle id="63_bus_5010:9" type="pt_bus" depart="1078.00" departLane="0" arrival="1301.00">
        <route edges="-155467734 -96306841 314292899 124977959#0 124977959#1 124977959#2 124977959#3 29084716#1 155542968 155542976"/>
        <stop busStop="1116169506" duration="30.00"/>
    </vehicle>

    <vehicle id="33_bus_5009:2" type="pt_bus" depart="526.00" departLane="0" arrival="1337.00">
        <route edges="85220995#0 -96306840#0 15021023 -173922269#1 -173922269#0 -123546523#1 -123546523#0 -96306828 -13200874#1 -13200874#0 11818116 30537708 -118607888 -23918359 -23918356 -23918286#2 -23918286#1 -23918281#0 46191510#0 -124977959#4 -124977959#2 -124977959#1 -124977959#0 -155467732#0 -155467734"/>
        <stop busStop="-1116252422" duration="30.00"/>
        <stop busStop="-1115656899" duration="30.00"/>
        <stop busStop="1116169506" duration="30.00"/>
    </vehicle>

    <vehicle id="64_bus_5010:10" type="pt_bus" depart="1139.00" departLane="0" arrival="1353.00">
        <route edges="-155467734 -96306841 314292899 124977959#0 124977959#1 124977959#2 124977959#3 29084716#1 155542968 155542976"/>
        <stop busStop="1116169506" duration="30.00"/>
    </vehicle>

    <vehicle id="65_bus_5010:11" type="pt_bus" depart="1149.00" departLane="0" arrival="1356.00">
        <route edges="-155467734 -96306841 314292899 124977959#0 124977959#1 124977959#2 124977959#3 29084716#1 155542968 155542976"/>
        <stop busStop="1116169506" duration="30.00"/>
    </vehicle>

    <vehicle id="75_bus_5015:7" type="pt_bus" depart="1271.00" departLane="0" arrival="1416.00">
        <route edges="-155542976 -369855809 -29084716#2 697574936#0 915457925#0 915457925#1 26945311#1"/>
        <stop busStop="1116169543" duration="30.00"/>
    </vehicle>

    <vehicle id="66_bus_5010:12" type="pt_bus" depart="1155.00" departLane="0" arrival="1458.00">
        <route edges="-155467734 -96306841 314292899 124977959#0 124977959#1 124977959#2 124977959#3 29084716#1 155542968 155542976"/>
        <stop busStop="1116169506" duration="30.00"/>
    </vehicle>

    <vehicle id="67_bus_5010:13" type="pt_bus" depart="1190.00" departLane="0" arrival="1460.00">
        <route edges="-155467734 -96306841 314292899 124977959#0 124977959#1 124977959#2 124977959#3 29084716#1 155542968 155542976"/>
        <stop busStop="1116169506" duration="30.00"/>
    </vehicle>
